version 3
run General-0-20241212-18:10:32-18676
attr configname General
attr datetime 20241212-18:10:32
attr datetimef 20241212-181032
attr experiment General
attr inifile omnetpp.ini
attr iterationvars ""
attr iterationvarsd ""
attr iterationvarsf ""
attr measurement ""
attr network DataReplicationNetwork
attr processid 18676
attr repetition 0
attr replication #0
attr resultdir results
attr runnumber 0
attr seedset 0
config sim-time-limit 50s
config network DataReplicationNetwork
config sim-time-limit 1000s
config **.edgeNode[*].dataAccessRate 10
config *.seed 42
config *.recordEventStats true
config check-signals true
config **.userRequestedData.result-recording-modes vector,histogram
config **.userDataReceived.result-recording-modes vector,histogram
config **.userRequestDelay.result-recording-modes vector,histogram
config **.edgeRequestCore.result-recording-modes vector,histogram
config **.edgeHaveData.result-recording-modes vector,histogram
config **.edgeHitMissRatio.result-recording-modes vector,histogram
config **.coreTimeTaken.result-recording-modes vector,histogram

vector 0 DataReplicationNetwork.edgeNode1 edgeRequestCore:vector ETV
attr recordingmode vector
attr title "Requested Core for data"
vector 1 DataReplicationNetwork.edgeNode1 edgeHaveData:vector ETV
attr recordingmode vector
attr title "Already had data"
vector 2 DataReplicationNetwork.edgeNode1 edgeHitMissRatio:vector ETV
attr recordingmode vector
attr title "Hit/Miss Ratio"
vector 3 DataReplicationNetwork.edgeNode2 edgeRequestCore:vector ETV
attr recordingmode vector
attr title "Requested Core for data"
vector 4 DataReplicationNetwork.edgeNode2 edgeHaveData:vector ETV
attr recordingmode vector
attr title "Already had data"
vector 5 DataReplicationNetwork.edgeNode2 edgeHitMissRatio:vector ETV
attr recordingmode vector
attr title "Hit/Miss Ratio"
vector 6 DataReplicationNetwork.edgeNode3 edgeRequestCore:vector ETV
attr recordingmode vector
attr title "Requested Core for data"
vector 7 DataReplicationNetwork.edgeNode3 edgeHaveData:vector ETV
attr recordingmode vector
attr title "Already had data"
vector 8 DataReplicationNetwork.edgeNode3 edgeHitMissRatio:vector ETV
attr recordingmode vector
attr title "Hit/Miss Ratio"
vector 9 DataReplicationNetwork.edgeNode4 edgeRequestCore:vector ETV
attr recordingmode vector
attr title "Requested Core for data"
vector 10 DataReplicationNetwork.edgeNode4 edgeHaveData:vector ETV
attr recordingmode vector
attr title "Already had data"
vector 11 DataReplicationNetwork.edgeNode4 edgeHitMissRatio:vector ETV
attr recordingmode vector
attr title "Hit/Miss Ratio"
vector 12 DataReplicationNetwork.edgeNode5 edgeRequestCore:vector ETV
attr recordingmode vector
attr title "Requested Core for data"
vector 13 DataReplicationNetwork.edgeNode5 edgeHaveData:vector ETV
attr recordingmode vector
attr title "Already had data"
vector 14 DataReplicationNetwork.edgeNode5 edgeHitMissRatio:vector ETV
attr recordingmode vector
attr title "Hit/Miss Ratio"
vector 15 DataReplicationNetwork.coreNode1 coreTimeTaken:vector ETV
attr recordingmode vector
attr title "Time taken to send data"
vector 16 DataReplicationNetwork.user1 userRequestedData:vector ETV
attr recordingmode vector
attr title "The number of requests sent out"
vector 17 DataReplicationNetwork.user1 userDataReceived:vector ETV
attr recordingmode vector
attr title "The number of data packets received"
vector 18 DataReplicationNetwork.user1 userRequestDelay:vector ETV
attr recordingmode vector
attr title "Time between sending req and getting data"
vector 19 DataReplicationNetwork.user2 userRequestedData:vector ETV
attr recordingmode vector
attr title "The number of requests sent out"
vector 20 DataReplicationNetwork.user2 userDataReceived:vector ETV
attr recordingmode vector
attr title "The number of data packets received"
vector 21 DataReplicationNetwork.user2 userRequestDelay:vector ETV
attr recordingmode vector
attr title "Time between sending req and getting data"
vector 22 DataReplicationNetwork.user3 userRequestedData:vector ETV
attr recordingmode vector
attr title "The number of requests sent out"
vector 23 DataReplicationNetwork.user3 userDataReceived:vector ETV
attr recordingmode vector
attr title "The number of data packets received"
vector 24 DataReplicationNetwork.user3 userRequestDelay:vector ETV
attr recordingmode vector
attr title "Time between sending req and getting data"
vector 25 DataReplicationNetwork.user4 userRequestedData:vector ETV
attr recordingmode vector
attr title "The number of requests sent out"
vector 26 DataReplicationNetwork.user4 userDataReceived:vector ETV
attr recordingmode vector
attr title "The number of data packets received"
vector 27 DataReplicationNetwork.user4 userRequestDelay:vector ETV
attr recordingmode vector
attr title "Time between sending req and getting data"
vector 28 DataReplicationNetwork.user5 userRequestedData:vector ETV
attr recordingmode vector
attr title "The number of requests sent out"
vector 29 DataReplicationNetwork.user5 userDataReceived:vector ETV
attr recordingmode vector
attr title "The number of data packets received"
vector 30 DataReplicationNetwork.user5 userRequestDelay:vector ETV
attr recordingmode vector
attr title "Time between sending req and getting data"
vector 31 DataReplicationNetwork.user6 userRequestedData:vector ETV
attr recordingmode vector
attr title "The number of requests sent out"
vector 32 DataReplicationNetwork.user6 userDataReceived:vector ETV
attr recordingmode vector
attr title "The number of data packets received"
vector 33 DataReplicationNetwork.user6 userRequestDelay:vector ETV
attr recordingmode vector
attr title "Time between sending req and getting data"
vector 34 DataReplicationNetwork.user7 userRequestedData:vector ETV
attr recordingmode vector
attr title "The number of requests sent out"
vector 35 DataReplicationNetwork.user7 userDataReceived:vector ETV
attr recordingmode vector
attr title "The number of data packets received"
vector 36 DataReplicationNetwork.user7 userRequestDelay:vector ETV
attr recordingmode vector
attr title "Time between sending req and getting data"
vector 37 DataReplicationNetwork.user8 userRequestedData:vector ETV
attr recordingmode vector
attr title "The number of requests sent out"
vector 38 DataReplicationNetwork.user8 userDataReceived:vector ETV
attr recordingmode vector
attr title "The number of data packets received"
vector 39 DataReplicationNetwork.user8 userRequestDelay:vector ETV
attr recordingmode vector
attr title "Time between sending req and getting data"
vector 40 DataReplicationNetwork.user9 userRequestedData:vector ETV
attr recordingmode vector
attr title "The number of requests sent out"
vector 41 DataReplicationNetwork.user9 userDataReceived:vector ETV
attr recordingmode vector
attr title "The number of data packets received"
vector 42 DataReplicationNetwork.user9 userRequestDelay:vector ETV
attr recordingmode vector
attr title "Time between sending req and getting data"
vector 43 DataReplicationNetwork.user10 userRequestedData:vector ETV
attr recordingmode vector
attr title "The number of requests sent out"
vector 44 DataReplicationNetwork.user10 userDataReceived:vector ETV
attr recordingmode vector
attr title "The number of data packets received"
vector 45 DataReplicationNetwork.user10 userRequestDelay:vector ETV
attr recordingmode vector
attr title "Time between sending req and getting data"
0	12	0.1	1
0	91	1.545999979973	2
0	96	1.608000016212	3
0	123	2.121999955177	4
0	127	2.137999987602	5
0	188	3.471999979019	6
0	200	3.585999979079	7
0	259	4.563999979199	8
0	275	4.84999999255	9
0	396	7.421999959648	10
0	446	8.330000138283	11
0	482	9.072000122071	12
0	532	9.855999974907	13
0	581	10.832000112534	14
0	593	11.05199995488	15
0	613	11.288000112772	16
0	647	11.989999978245	17
0	667	12.164000099897	18
0	689	12.443999989332	19
0	802	14.927999956907	20
0	812	15.01599995643	21
0	816	15.081999956072	22
0	820	15.230000084639	23
0	907	16.297999916972	24
0	990	17.54399996847	25
0	1044	18.700000113249	26
0	1052	18.777999936045	27
0	1076	19.097999928892	28
0	1151	20.418000167608	29
0	1175	20.761999963224	30
0	1202	21.264000183344	31
0	1272	22.508000014722	32
0	1299	23.142000204325	33
0	1352	24.286000011861	34
0	1386	24.972000001371	35
0	1395	25.112000232935	36
0	1457	26.233999966085	37
0	1473	26.820000177622	38
0	1513	27.533999918401	39
0	1588	29.046000188589	40
0	1620	29.327999947965	41
0	1641	29.541999949515	42
0	1705	30.606000161171	43
0	1753	31.540000034869	44
0	1791	32.096000170708	45
0	1874	33.618000073731	46
0	1970	35.284000082314	47
0	1974	35.300000166893	48
0	1985	35.626000089943	49
0	2051	37.012000179291	50
0	2055	37.054000178725	51
0	2072	37.218000097572	52
0	2087	37.512000183017	53
0	2162	38.684000233562	54
0	2188	39.008000059425	55
0	2237	40.012000183017	56
0	2286	40.83600000888	57
0	2314	41.194000019132	58
0	2341	41.610000027715	59
0	2386	42.126000000535	60
0	2396	42.280000130088	61
0	2472	43.856000105292	62
0	2487	44.180000106246	63
0	2508	44.40000001937	64
0	2521	44.702000005542	65
1	11	0.1	1
1	207	3.767999975384	2
1	215	3.902000045776	3
1	293	5.168000078201	4
1	351	6.518000102043	5
1	363	6.667999951542	6
1	437	8.243999986351	7
1	682	12.421999989451	8
1	725	13.285999996961	9
1	741	13.616000121832	10
1	854	15.545999942721	11
1	941	16.76600009799	12
1	1570	28.652000194788	13
1	1616	29.316000199318	14
1	1711	30.658000005782	15
1	1833	32.844000196457	16
1	1857	33.286000086367	17
1	1878	33.632000184059	18
1	2319	41.284000138194	19
1	2411	42.559999985991	20
2	11	0.1	1
2	12	0.1	0.5
2	56	0.915249979496	0.5
2	91	1.545999979973	0.33333333333333
2	96	1.608000016212	0.25
2	123	2.121999955177	0.2
2	127	2.137999987602	0.16666666666667
2	149	2.507000005245	0.16666666666667
2	156	2.59899995327	0.16666666666667
2	170	2.960249996185	0.16666666666667
2	171	2.990749931335	0.16666666666667
2	188	3.471999979019	0.14285714285714
2	200	3.585999979079	0.125
2	207	3.767999975384	0.22222222222222
2	215	3.902000045776	0.3
2	227	4.032500004768	0.3
2	254	4.453499986232	0.3
2	259	4.563999979199	0.27272727272727
2	275	4.84999999255	0.25
2	287	5.064749999345	0.25
2	293	5.168000078201	0.30769230769231
2	299	5.229750005902	0.30769230769231
2	351	6.518000102043	0.35714285714286
2	363	6.667999951542	0.4
2	396	7.421999959648	0.375
2	437	8.243999986351	0.41176470588235
2	439	8.283999948204	0.41176470588235
2	446	8.330000138283	0.38888888888889
2	482	9.072000122071	0.36842105263158
2	501	9.354500150681	0.36842105263158
2	532	9.855999974907	0.35
2	556	10.314250087739	0.35
2	581	10.832000112534	0.33333333333333
2	591	10.935499934853	0.33333333333333
2	593	11.05199995488	0.31818181818182
2	613	11.288000112772	0.30434782608696
2	623	11.56724998206	0.30434782608696
2	643	11.902000135183	0.30434782608696
2	647	11.989999978245	0.29166666666667
2	651	12.025750136376	0.29166666666667
2	667	12.164000099897	0.28
2	682	12.421999989451	0.30769230769231
2	689	12.443999989332	0.2962962962963
2	707	12.811499981583	0.2962962962963
2	712	12.940500086546	0.2962962962963
2	725	13.285999996961	0.32142857142857
2	741	13.616000121832	0.3448275862069
2	752	13.654999955	0.3448275862069
2	802	14.927999956907	0.33333333333333
2	812	15.01599995643	0.32258064516129
2	816	15.081999956072	0.3125
2	820	15.230000084639	0.3030303030303
2	823	15.264249949158	0.3030303030303
2	830	15.299999950827	0.3030303030303
2	854	15.545999942721	0.32352941176471
2	879	15.963500006498	0.32352941176471
2	885	16.000000065566	0.32352941176471
2	907	16.297999916972	0.31428571428571
2	941	16.76600009799	0.33333333333333
2	948	16.866499899329	0.33333333333333
2	990	17.54399996847	0.32432432432432
2	1027	18.40374994129	0.32432432432432
2	1044	18.700000113249	0.31578947368421
2	1052	18.777999936045	0.30769230769231
2	1068	19.064749924839	0.30769230769231
2	1076	19.097999928892	0.3
2	1107	19.670250123739	0.3
2	1125	20.100249885023	0.3
2	1151	20.418000167608	0.29268292682927
2	1175	20.761999963224	0.28571428571429
2	1202	21.264000183344	0.27906976744186
2	1205	21.273500150442	0.27906976744186
2	1218	21.613749979436	0.27906976744186
2	1221	21.694750195742	0.27906976744186
2	1272	22.508000014722	0.27272727272727
2	1299	23.142000204325	0.26666666666667
2	1307	23.35675021112	0.26666666666667
2	1327	23.75024998039	0.26666666666667
2	1352	24.286000011861	0.26086956521739
2	1386	24.972000001371	0.25531914893617
2	1395	25.112000232935	0.25
2	1398	25.117500005662	0.25
2	1409	25.344750015438	0.25
2	1413	25.548000222445	0.25
2	1457	26.233999966085	0.24489795918367
2	1463	26.525499968231	0.24489795918367
2	1473	26.820000177622	0.24
2	1513	27.533999918401	0.23529411764706
2	1519	27.671250170469	0.23529411764706
2	1533	27.964749930799	0.23529411764706
2	1570	28.652000194788	0.25
2	1588	29.046000188589	0.24528301886792
2	1609	29.263750186562	0.24528301886792
2	1616	29.316000199318	0.25925925925926
2	1620	29.327999947965	0.25454545454545
2	1641	29.541999949515	0.25
2	1664	30.156499920785	0.25
2	1689	30.465499950946	0.25
2	1705	30.606000161171	0.24561403508772
2	1711	30.658000005782	0.25862068965517
2	1747	31.502750134468	0.25862068965517
2	1753	31.540000034869	0.25423728813559
2	1791	32.096000170708	0.25
2	1808	32.310000015796	0.25
2	1830	32.746750152111	0.25
2	1833	32.844000196457	0.26229508196721
2	1857	33.286000086367	0.2741935483871
2	1874	33.618000073731	0.26984126984127
2	1878	33.632000184059	0.28125
2	1932	34.625500126183	0.28125
2	1970	35.284000082314	0.27692307692308
2	1974	35.300000166893	0.27272727272727
2	1985	35.626000089943	0.26865671641791
2	1989	35.755500091612	0.26865671641791
2	2004	35.918250067532	0.26865671641791
2	2031	36.278500175476	0.26865671641791
2	2051	37.012000179291	0.26470588235294
2	2055	37.054000178725	0.26086956521739
2	2072	37.218000097572	0.25714285714286
2	2087	37.512000183017	0.25352112676056
2	2095	37.672250187397	0.25352112676056
2	2105	37.832250187547	0.25352112676056
2	2106	37.85225008279	0.25352112676056
2	2120	37.950750152022	0.25352112676056
2	2162	38.684000233562	0.25
2	2188	39.008000059425	0.24657534246575
2	2219	39.569250030815	0.24657534246575
2	2220	39.591000238807	0.24657534246575
2	2237	40.012000183017	0.24324324324324
2	2253	40.298750171811	0.24324324324324
2	2286	40.83600000888	0.24
2	2314	41.194000019132	0.23684210526316
2	2319	41.284000138194	0.24675324675325
2	2341	41.610000027715	0.24358974358974
2	2347	41.703500016033	0.24358974358974
2	2350	41.736500038205	0.24358974358974
2	2355	41.775750024616	0.24358974358974
2	2386	42.126000000535	0.24050632911392
2	2396	42.280000130088	0.2375
2	2411	42.559999985991	0.24691358024691
2	2433	42.977750016747	0.24691358024691
2	2441	43.147500137241	0.24691358024691
2	2472	43.856000105292	0.24390243902439
2	2487	44.180000106246	0.24096385542169
2	2508	44.40000001937	0.23809523809524
2	2521	44.702000005542	0.23529411764706
2	2524	44.722500125319	0.23529411764706
3	13	0.1	1
3	14	0.1	2
3	60	1.044000005722	3
3	70	1.297999954224	4
3	134	2.193999981881	5
3	138	2.24999998361	6
3	146	2.505999995769	7
3	152	2.553999996185	8
3	196	3.530000007152	9
3	246	4.308000041545	10
3	250	4.390000021457	11
3	333	6.252000047267	12
3	342	6.390000021457	13
3	374	7.0260000363	14
3	380	7.126000022888	15
3	452	8.494000090659	16
3	469	8.661999976634	17
3	503	9.382000102103	18
3	521	9.691999948024	19
3	539	9.878000093997	20
3	553	10.211999928951	21
3	601	11.139999902248	22
3	609	11.270000053943	23
3	654	12.076000018418	24
3	674	12.210000021756	25
3	695	12.531999862194	26
3	729	13.320000036061	27
3	758	13.777999913692	28
3	827	15.296000047028	29
3	859	15.669999873638	30
3	888	16.005999869108	31
3	920	16.447999870777	32
3	926	16.522000057996	33
3	1002	17.771999871731	34
3	1006	17.836000068486	35
3	1013	18.048000065983	36
3	1072	19.095999842882	37
3	1082	19.260000078381	38
3	1115	19.897999814153	39
3	1167	20.629999807477	40
3	1171	20.72400006503	41
3	1213	21.495999804139	42
3	1250	22.362000076474	43
3	1309	23.377999773621	44
3	1365	24.63000008315	45
3	1375	24.855999818444	46
3	1381	24.913999816775	47
3	1406	25.344000069799	48
3	1438	25.907999804616	49
3	1469	26.732000081243	50
3	1481	26.85800008327	51
3	1537	28.064000053706	52
3	1551	28.332000060382	53
3	1624	29.331999829411	54
3	1666	30.194000108543	55
3	1677	30.34200011045	56
3	1701	30.534000112119	57
3	1777	31.914000107351	58
3	1787	32.077999821304	59
3	1851	33.084000064436	60
3	1890	33.979999771713	61
3	1901	34.138000084463	62
3	1917	34.471999785303	63
3	1961	35.154000116888	64
3	2007	35.96199979484	65
3	2027	36.179999789595	66
3	2060	37.104000164572	67
3	2117	37.904000176493	68
3	2143	38.223999848961	69
3	2174	38.954000158612	70
3	2199	39.282000167672	71
3	2223	39.619999876618	72
3	2305	41.180000169579	73
3	2325	41.391999831795	74
3	2391	42.211999824642	75
3	2400	42.37200020105	76
3	2458	43.708000166718	77
3	2493	44.227999797462	78
4	442	8.313999986648	1
4	635	11.818000032008	2
4	754	13.668000026047	3
4	870	15.876000030339	4
4	1061	18.921999847889	5
4	1086	19.335999837518	6
4	1147	20.351999810338	7
4	1322	23.69400009364	8
4	1426	25.655999800563	9
4	1510	27.51599984467	10
4	1578	28.900000078979	11
4	1738	31.269999793171	12
4	2067	37.193999847769	13
4	2084	37.431999853253	14
4	2136	38.180000169579	15
4	2428	42.899999848007	16
5	13	0.1	0
5	14	0.1	0
5	47	0.61525002718	0
5	51	0.869999980927	0
5	60	1.044000005722	0
5	70	1.297999954224	0
5	94	1.58949995637	0
5	132	2.169499969482	0
5	134	2.193999981881	0
5	138	2.24999998361	0
5	146	2.505999995769	0
5	152	2.553999996185	0
5	165	2.878750009836	0
5	173	3.052499985695	0
5	179	3.125999970735	0
5	180	3.196249938012	0
5	196	3.530000007152	0
5	246	4.308000041545	0
5	250	4.390000021457	0
5	263	4.609499967098	0
5	309	5.428750073909	0
5	313	5.534250093997	0
5	333	6.252000047267	0
5	342	6.390000021457	0
5	374	7.0260000363	0
5	380	7.126000022888	0
5	390	7.266000105441	0
5	391	7.363000011443	0
5	409	7.802500022949	0
5	418	7.998750007152	0
5	442	8.313999986648	0.0625
5	452	8.494000090659	0.058823529411765
5	469	8.661999976634	0.055555555555556
5	480	8.916749989985	0.055555555555556
5	503	9.382000102103	0.052631578947368
5	511	9.464250101149	0.052631578947368
5	521	9.691999948024	0.05
5	539	9.878000093997	0.047619047619048
5	543	9.95050008446	0.047619047619048
5	553	10.211999928951	0.045454545454545
5	574	10.70025010258	0.045454545454545
5	584	10.844749963283	0.045454545454545
5	586	10.872249937057	0.045454545454545
5	601	11.139999902248	0.043478260869565
5	609	11.270000053943	0.041666666666667
5	635	11.818000032008	0.08
5	638	11.830500079692	0.08
5	654	12.076000018418	0.076923076923077
5	674	12.210000021756	0.074074074074074
5	678	12.373749887943	0.074074074074074
5	693	12.49675001055	0.074074074074074
5	695	12.531999862194	0.071428571428571
5	723	13.26924995929	0.071428571428571
5	729	13.320000036061	0.068965517241379
5	735	13.548249876499	0.068965517241379
5	754	13.668000026047	0.1
5	756	13.756000025571	0.1
5	758	13.777999913692	0.096774193548387
5	778	14.098249918222	0.096774193548387
5	827	15.296000047028	0.09375
5	859	15.669999873638	0.090909090909091
5	870	15.876000030339	0.11764705882353
5	888	16.005999869108	0.11428571428571
5	891	16.118250055611	0.11428571428571
5	900	16.196499875188	0.11428571428571
5	920	16.447999870777	0.11111111111111
5	924	16.498499846458	0.11111111111111
5	926	16.522000057996	0.10810810810811
5	970	17.27024987936	0.10810810810811
5	999	17.679500086606	0.10810810810811
5	1002	17.771999871731	0.10526315789474
5	1006	17.836000068486	0.1025641025641
5	1013	18.048000065983	0.1
5	1016	18.096249884367	0.1
5	1042	18.699000044167	0.1
5	1056	18.81800004691	0.1
5	1061	18.921999847889	0.1219512195122
5	1072	19.095999842882	0.11904761904762
5	1082	19.260000078381	0.11627906976744
5	1086	19.335999837518	0.13636363636364
5	1115	19.897999814153	0.13333333333333
5	1118	19.955749815702	0.13333333333333
5	1124	20.082250086964	0.13333333333333
5	1147	20.351999810338	0.15217391304348
5	1167	20.629999807477	0.14893617021277
5	1171	20.72400006503	0.14583333333333
5	1184	21.003749778867	0.14583333333333
5	1213	21.495999804139	0.14285714285714
5	1217	21.55250003785	0.14285714285714
5	1220	21.668749859929	0.14285714285714
5	1236	22.097499778867	0.14285714285714
5	1250	22.362000076474	0.14
5	1309	23.377999773621	0.13725490196078
5	1312	23.487500040234	0.13725490196078
5	1322	23.69400009364	0.15384615384615
5	1342	23.944999745488	0.15384615384615
5	1365	24.63000008315	0.15094339622642
5	1375	24.855999818444	0.14814814814815
5	1381	24.913999816775	0.14545454545455
5	1406	25.344000069799	0.14285714285714
5	1411	25.475249788165	0.14285714285714
5	1412	25.5097500667	0.14285714285714
5	1426	25.655999800563	0.15789473684211
5	1428	25.665500132741	0.15789473684211
5	1438	25.907999804616	0.1551724137931
5	1442	26.020999780297	0.1551724137931
5	1461	26.450499823689	0.1551724137931
5	1469	26.732000081243	0.15254237288136
5	1481	26.85800008327	0.15
5	1510	27.51599984467	0.16393442622951
5	1517	27.655500082674	0.16393442622951
5	1534	28.030000133815	0.16393442622951
5	1537	28.064000053706	0.16129032258065
5	1551	28.332000060382	0.15873015873016
5	1576	28.893250031772	0.15873015873016
5	1578	28.900000078979	0.171875
5	1614	29.310750050845	0.171875
5	1624	29.331999829411	0.16923076923077
5	1666	30.194000108543	0.16666666666667
5	1677	30.34200011045	0.16417910447761
5	1699	30.489499858021	0.16417910447761
5	1701	30.534000112119	0.16176470588235
5	1709	30.628750099244	0.16176470588235
5	1713	30.659750117364	0.16176470588235
5	1733	31.226500137153	0.16176470588235
5	1738	31.269999793171	0.17391304347826
5	1777	31.914000107351	0.17142857142857
5	1787	32.077999821304	0.16901408450704
5	1815	32.398249825834	0.16901408450704
5	1826	32.690500094	0.16901408450704
5	1851	33.084000064436	0.16666666666667
5	1890	33.979999771713	0.16438356164384
5	1901	34.138000084463	0.16216216216216
5	1905	34.241500093046	0.16216216216216
5	1917	34.471999785303	0.16
5	1944	34.808499744533	0.16
5	1950	35.000000073019	0.16
5	1961	35.154000116888	0.15789473684211
5	1983	35.624749800562	0.15789473684211
5	2007	35.96199979484	0.15584415584416
5	2016	36.030000104013	0.15584415584416
5	2027	36.179999789595	0.15384615384615
5	2049	36.995249769091	0.15384615384615
5	2060	37.104000164572	0.15189873417722
5	2067	37.193999847769	0.1625
5	2070	37.208749791979	0.1625
5	2082	37.428250177208	0.1625
5	2084	37.431999853253	0.17283950617284
5	2117	37.904000176493	0.17073170731707
5	2136	38.180000169579	0.18072289156627
5	2143	38.223999848961	0.17857142857143
5	2166	38.776750160757	0.17857142857143
5	2174	38.954000158612	0.17647058823529
5	2199	39.282000167672	0.17441860465116
5	2212	39.4707498461	0.17441860465116
5	2218	39.568000181023	0.17441860465116
5	2221	39.614000155036	0.17441860465116
5	2223	39.619999876618	0.17241379310345
5	2252	40.274749866128	0.17241379310345
5	2305	41.180000169579	0.17045454545455
5	2325	41.391999831795	0.1685393258427
5	2384	42.107750160996	0.1685393258427
5	2391	42.211999824642	0.16666666666667
5	2400	42.37200020105	0.16483516483516
5	2404	42.4082498461	0.16483516483516
5	2428	42.899999848007	0.17391304347826
5	2436	43.073999813198	0.17391304347826
5	2444	43.279000206295	0.17391304347826
5	2458	43.708000166718	0.17204301075269
5	2493	44.227999797462	0.17021276595745
5	2519	44.580750150982	0.17021276595745
6	15	0.1	1
6	16	0.1	2
6	53	0.891999995708	3
6	65	1.12199999988	4
6	192	3.486000022291	5
6	221	3.972000038623	6
6	234	4.140000036358	7
6	296	5.226000031828	8
6	328	6.068000009655	9
6	359	6.628000041842	10
6	420	8.026000043749	11
6	496	9.191999948023	12
6	514	9.566000005602	13
6	545	10.01199994087	14
6	558	10.315999931095	15
6	597	11.130000016092	16
6	658	12.093999928234	17
6	737	13.597999951242	18
6	749	13.635999983547	19
6	846	15.437999925016	20
6	865	15.815999916195	21
6	893	16.12000005543	22
6	897	16.167999914288	23
6	911	16.305999910831	24
6	951	16.987999892234	25
6	959	17.138000062106	26
6	963	17.153999885916	27
6	986	17.501999875902	28
6	1037	18.581999918817	29
6	1048	18.756000092624	30
6	1121	20.021999916433	31
6	1156	20.538000038265	32
6	1207	21.315999945997	33
6	1246	22.331999978422	34
6	1261	22.420000007747	35
6	1279	22.632000005244	36
6	1293	23.050000002979	37
6	1335	23.928000009059	38
6	1345	24.117999961971	39
6	1402	25.341999939083	40
6	1477	26.846000111102	41
6	1501	27.376000082492	42
6	1525	27.828000074624	43
6	1546	28.293999961017	44
6	1602	29.181999972461	45
6	1606	29.224000102281	46
6	1631	29.385999968646	47
6	1743	31.379999926684	48
6	1766	31.749999931452	49
6	1772	31.81600010991	50
6	1860	33.292000061273	51
6	1868	33.465999951956	52
6	1907	34.247999957201	53
6	1965	35.170000082254	54
6	2035	36.570000058412	55
6	2044	36.7780000478	56
6	2101	37.756000047922	57
6	2195	39.23799998909	58
6	2207	39.382000094652	59
6	2241	40.056000119448	60
6	2247	40.162000013886	61
6	2329	41.405999971924	62
6	2352	41.765999986229	63
6	2364	41.95400006175	64
6	2372	41.978000061959	65
6	2407	42.525999976692	66
6	2438	43.073999954757	67
6	2468	43.834000008553	68
6	2514	44.51999993473	69
7	88	1.509999966621	1
7	159	2.816000005602	2
7	183	3.330000019073	3
7	307	5.416000029444	4
7	403	7.699999979137	5
7	407	7.781999981402	6
7	671	12.179999968408	7
7	797	14.755999943613	8
7	850	15.474000042675	9
7	873	15.892000055311	10
7	1058	18.853999933599	11
7	1266	22.449999979137	12
7	1432	25.692000067233	13
7	1465	26.575999906658	14
7	1659	29.878000086545	15
7	1724	30.978000110387	16
7	1819	32.577999940512	17
7	1979	35.457999995348	18
7	2150	38.309999993441	19
7	2154	38.343999995289	20
7	2265	40.404000109434	21
8	15	0.1	0
8	16	0.1	0
8	45	0.348249992728	0
8	46	0.530750012398	0
8	53	0.891999995708	0
8	65	1.12199999988	0
8	78	1.434500014781	0
8	88	1.509999966621	0.2
8	144	2.368749997019	0.2
8	159	2.816000005602	0.33333333333333
8	183	3.330000019073	0.42857142857143
8	192	3.486000022291	0.375
8	221	3.972000038623	0.33333333333333
8	234	4.140000036358	0.3
8	242	4.26250000894	0.3
8	243	4.269500038027	0.3
8	285	4.996500051021	0.3
8	296	5.226000031828	0.27272727272727
8	307	5.416000029444	0.33333333333333
8	328	6.068000009655	0.30769230769231
8	349	6.454000076651	0.30769230769231
8	359	6.628000041842	0.28571428571429
8	371	6.94399999678	0.28571428571429
8	399	7.496750018	0.28571428571429
8	403	7.699999979137	0.33333333333333
8	407	7.781999981402	0.375
8	420	8.026000043749	0.35294117647059
8	490	9.105500003695	0.35294117647059
8	496	9.191999948023	0.33333333333333
8	514	9.566000005602	0.31578947368421
8	542	9.905499970911	0.31578947368421
8	545	10.01199994087	0.3
8	551	10.131500026583	0.3
8	558	10.315999931095	0.28571428571429
8	587	10.874999916551	0.28571428571429
8	597	11.130000016092	0.27272727272727
8	618	11.48799998164	0.27272727272727
8	645	11.981250008939	0.27272727272727
8	658	12.093999928234	0.26086956521739
8	671	12.179999968408	0.29166666666667
8	714	12.961499935387	0.29166666666667
8	737	13.597999951242	0.28
8	749	13.635999983547	0.26923076923077
8	785	14.196500009296	0.26923076923077
8	794	14.624499937891	0.26923076923077
8	797	14.755999943613	0.2962962962963
8	846	15.437999925016	0.28571428571429
8	850	15.474000042675	0.31034482758621
8	865	15.815999916195	0.3
8	873	15.892000055311	0.32258064516129
8	886	16.004999896883	0.32258064516129
8	893	16.12000005543	0.3125
8	897	16.167999914288	0.3030303030303
8	911	16.305999910831	0.29411764705882
8	917	16.337750053403	0.29411764705882
8	918	16.422749927639	0.29411764705882
8	932	16.585999897122	0.29411764705882
8	951	16.987999892234	0.28571428571429
8	957	17.134499883651	0.28571428571429
8	959	17.138000062106	0.27777777777778
8	963	17.153999885916	0.27027027027027
8	986	17.501999875902	0.26315789473684
8	1009	17.911499893665	0.26315789473684
8	1010	17.969500055907	0.26315789473684
8	1018	18.16799994409	0.26315789473684
8	1029	18.515499851106	0.26315789473684
8	1037	18.581999918817	0.25641025641026
8	1048	18.756000092624	0.25
8	1058	18.853999933599	0.26829268292683
8	1067	19.017999908327	0.26829268292683
8	1109	19.770000150798	0.26829268292683
8	1121	20.021999916433	0.26190476190476
8	1156	20.538000038265	0.25581395348837
8	1183	21.000499925016	0.25581395348837
8	1207	21.315999945997	0.25
8	1216	21.545500090717	0.25
8	1244	22.318249902128	0.25
8	1246	22.331999978422	0.24444444444444
8	1261	22.420000007747	0.23913043478261
8	1266	22.449999979137	0.25531914893617
8	1279	22.632000005244	0.25
8	1293	23.050000002979	0.24489795918367
8	1304	23.238999983667	0.24489795918367
8	1305	23.251500001548	0.24489795918367
8	1320	23.684999978541	0.24489795918367
8	1335	23.928000009059	0.24
8	1345	24.117999961971	0.23529411764706
8	1348	24.175499966739	0.23529411764706
8	1378	24.898250019549	0.23529411764706
8	1389	24.973499944805	0.23529411764706
8	1402	25.341999939083	0.23076923076923
8	1429	25.673999926447	0.23076923076923
8	1432	25.692000067233	0.24528301886792
8	1465	26.575999906658	0.25925925925926
8	1477	26.846000111102	0.25454545454545
8	1498	27.361250138282	0.25454545454545
8	1501	27.376000082492	0.25
8	1525	27.828000074624	0.24561403508772
8	1546	28.293999961017	0.24137931034483
8	1549	28.303750073909	0.24137931034483
8	1580	28.907999983428	0.24137931034483
8	1585	29.021250015496	0.24137931034483
8	1602	29.181999972461	0.23728813559322
8	1606	29.224000102281	0.23333333333333
8	1631	29.385999968646	0.22950819672131
8	1634	29.441750100254	0.22950819672131